REMARK  Name = 
REMARK  7 active torsions:
REMARK  status: ('A' for Active; 'I' for Inactive)
REMARK    1  A    between atoms: C_2  and  C_3
REMARK    2  A    between atoms: C_2  and  C_20
REMARK    3  A    between atoms: C_3  and  C_4
REMARK    4  A    between atoms: C_4  and  C_5
REMARK    5  A    between atoms: C_5  and  N_6
REMARK    6  A    between atoms: C_9  and  O_10
REMARK    7  A    between atoms: C_9  and  C_11
REMARK                            x       y       z     vdW  Elec       q    Type
REMARK                         _______ _______ _______ _____ _____    ______ ____
ROOT
ATOM      1  N   UNL     1      -0.367  -0.248  -0.021  1.00  0.00    +0.000 NA
ATOM      2  C   UNL     1      -1.005  -1.157   0.959  1.00  0.00    +0.000 C 
ATOM      3  C   UNL     1      -2.537  -0.963   1.023  1.00  0.00    +0.000 C 
ATOM      4  C   UNL     1      -3.087  -0.358  -0.298  1.00  0.00    +0.000 C 
ATOM      5  C   UNL     1      -2.428   1.029  -0.536  1.00  0.00    +0.000 C 
ATOM      6  C   UNL     1      -0.973   1.096  -0.029  1.00  0.00    +0.000 C 
ENDROOT
BRANCH   4   7
ATOM      7  C   UNL     1      -4.615  -0.196  -0.257  1.00  0.00    +0.000 A 
ATOM      8  C   UNL     1      -5.245   0.435   0.838  1.00  0.00    +0.000 A 
ATOM      9  C   UNL     1      -6.632   0.610   0.863  1.00  0.00    +0.000 A 
ATOM     10  C   UNL     1      -7.413   0.178  -0.210  1.00  0.00    +0.000 A 
ATOM     11 CL   UNL     1      -9.153   0.402  -0.177  1.00  0.00    +0.000 Cl
ATOM     12  C   UNL     1      -6.806  -0.419  -1.316  1.00  0.00    +0.000 A 
ATOM     13  C   UNL     1      -5.420  -0.597  -1.347  1.00  0.00    +0.000 A 
ENDBRANCH   4   7
BRANCH   4  14
ATOM     14  O   UNL     1      -2.713  -1.199  -1.369  1.00  0.00    +0.000 OA
ATOM     15  H   UNL     1      -3.055  -2.112  -1.176  1.00  0.00    +0.000 HD
ENDBRANCH   4  14
BRANCH   1  16
ATOM     16  C   UNL     1       1.110  -0.241   0.067  1.00  0.00    +0.000 C 
BRANCH  16  17
ATOM     17  C   UNL     1       1.674   0.592   1.242  1.00  0.00    +0.000 C 
BRANCH  17  18
ATOM     18  C   UNL     1       3.198   0.435   1.375  1.00  0.00    +0.000 C 
BRANCH  18  20
ATOM     19  O   UNL     1       3.517   2.038  -0.376  1.00  0.00    +0.000 OA
ATOM     20  C   UNL     1       3.958   1.005   0.199  1.00  0.00    +0.000 C 
BRANCH  20  21
ATOM     21  C   UNL     1       5.239   0.414  -0.261  1.00  0.00    +0.000 A 
ATOM     22  C   UNL     1       5.688   0.650  -1.575  1.00  0.00    +0.000 A 
ATOM     23  C   UNL     1       6.894   0.103  -2.022  1.00  0.00    +0.000 A 
ATOM     24  C   UNL     1       7.671  -0.678  -1.163  1.00  0.00    +0.000 A 
ATOM     25  F   UNL     1       8.841  -1.206  -1.599  1.00  0.00    +0.000 F 
ATOM     26  C   UNL     1       7.243  -0.911   0.146  1.00  0.00    +0.000 A 
ATOM     27  C   UNL     1       6.037  -0.367   0.598  1.00  0.00    +0.000 A 
ENDBRANCH  20  21
ENDBRANCH  18  20
ENDBRANCH  17  18
ENDBRANCH  16  17
ENDBRANCH   1  16
TORSDOF 7
